<?xml version="1.0" encoding="UTF-8"?>

<!-- generated on 2021-06-02 10:32:09 by Eclipse SUMO GUI Version 1.9.2
<configuration xmlns:xsi="http://www.w3.org/2001/XMLSchema-instance" xsi:noNamespaceSchemaLocation="http://sumo.dlr.de/xsd/sumoConfiguration.xsd">

    <input>
        <net-file value="data/NguyenVanLinh/nguyenvanlinh.net.xml"/>
        <route-files value="data/NguyenVanLinh/nvl.odtrips.rou.xml"/>
    </input>

    <output>
        <fcd-output value="sumoTrace.xml"/>
        <summary-output value="sumoSummary.xml"/>
        <tripinfo-output value="tripinfo.xml"/>
    </output>

    <time>
        <begin value="0"/>
    </time>

    <report>
        <verbose value="true"/>
        <no-step-log value="true"/>
    </report>

    <traci_server>
        <remote-port value="49887"/>
    </traci_server>

</configuration>
-->

<tripinfos xmlns:xsi="http://www.w3.org/2001/XMLSchema-instance" xsi:noNamespaceSchemaLocation="http://sumo.dlr.de/xsd/tripinfo_file.xsd">
    <tripinfo id="63" depart="1.00" departLane="695504114#1_0" departPos="5.10" departSpeed="29.45" departDelay="0.21" arrival="25.00" arrivalLane="39368999#0_0" arrivalPos="259.89" arrivalSpeed="29.41" duration="24.00" routeLength="467.13" waitingTime="0.00" waitingCount="0" stopTime="0.00" timeLoss="7.21" rerouteNo="0" devices="tripinfo_63 fcd_63" vType="DEFAULT_VEHTYPE" speedFactor="1.06" vaporized=""/>
    <tripinfo id="412" depart="20.00" departLane="695446624#0_0" departPos="5.10" departSpeed="24.61" departDelay="0.39" arrival="28.00" arrivalLane="695490087#1_0" arrivalPos="110.06" arrivalSpeed="24.48" duration="8.00" routeLength="176.33" waitingTime="0.00" waitingCount="0" stopTime="0.00" timeLoss="0.17" rerouteNo="0" devices="tripinfo_412 fcd_412" vType="DEFAULT_VEHTYPE" speedFactor="0.89" vaporized=""/>
    <tripinfo id="88" depart="17.00" departLane="695504114#1_0" departPos="5.10" departSpeed="28.62" departDelay="0.28" arrival="42.00" arrivalLane="39368999#0_0" arrivalPos="259.89" arrivalSpeed="27.60" duration="25.00" routeLength="467.13" waitingTime="0.00" waitingCount="0" stopTime="0.00" timeLoss="7.07" rerouteNo="0" devices="tripinfo_88 fcd_88" vType="DEFAULT_VEHTYPE" speedFactor="1.03" vaporized=""/>
    <tripinfo id="391" depart="24.00" departLane="-39368999#0_0" departPos="5.10" departSpeed="26.05" departDelay="0.95" arrival="54.00" arrivalLane="695446623#1_0" arrivalPos="50.37" arrivalSpeed="20.64" duration="30.00" routeLength="387.41" waitingTime="4.00" waitingCount="1" stopTime="0.00" timeLoss="14.58" rerouteNo="0" devices="tripinfo_391 fcd_391" vType="DEFAULT_VEHTYPE" speedFactor="0.94" vaporized=""/>
    <tripinfo id="519" depart="5.00" departLane="695446624#0_0" departPos="5.10" departSpeed="13.71" departDelay="0.23" arrival="57.00" arrivalLane="695504114#4_0" arrivalPos="49.75" arrivalSpeed="16.51" duration="52.00" routeLength="722.30" waitingTime="0.00" waitingCount="0" stopTime="0.00" timeLoss="21.94" rerouteNo="0" devices="tripinfo_519 fcd_519" vType="DEFAULT_VEHTYPE" speedFactor="1.01" vaporized=""/>
    <tripinfo id="747" depart="19.00" departLane="-695446623#1_0" departPos="5.10" departSpeed="20.87" departDelay="0.03" arrival="58.00" arrivalLane="695504114#4_2" arrivalPos="49.75" arrivalSpeed="17.51" duration="39.00" routeLength="142.02" waitingTime="21.00" waitingCount="2" stopTime="0.00" timeLoss="32.48" rerouteNo="0" devices="tripinfo_747 fcd_747" vType="DEFAULT_VEHTYPE" speedFactor="1.05" vaporized=""/>
    <tripinfo id="570" depart="47.00" departLane="695446624#0_0" departPos="5.10" departSpeed="13.71" departDelay="0.10" arrival="58.00" arrivalLane="695446623#1_0" arrivalPos="50.37" arrivalSpeed="17.14" duration="11.00" routeLength="101.36" waitingTime="0.00" waitingCount="0" stopTime="0.00" timeLoss="6.40" rerouteNo="0" devices="tripinfo_570 fcd_570" vType="DEFAULT_VEHTYPE" speedFactor="1.05" vaporized=""/>
    <tripinfo id="245" depart="12.00" departLane="-39368999#0_0" departPos="5.10" departSpeed="30.08" departDelay="0.88" arrival="60.00" arrivalLane="695490087#1_2" arrivalPos="110.06" arrivalSpeed="25.69" duration="48.00" routeLength="444.49" waitingTime="20.00" waitingCount="1" stopTime="0.00" timeLoss="31.47" rerouteNo="0" devices="tripinfo_245 fcd_245" vType="DEFAULT_VEHTYPE" speedFactor="1.08" vaporized=""/>
    <tripinfo id="769" depart="48.00" departLane="-695446623#1_0" departPos="5.10" departSpeed="20.87" departDelay="0.05" arrival="60.00" arrivalLane="695446623#1_1" arrivalPos="50.37" arrivalSpeed="16.29" duration="12.00" routeLength="128.50" waitingTime="0.00" waitingCount="0" stopTime="0.00" timeLoss="6.98" rerouteNo="0" devices="tripinfo_769 fcd_769" vType="DEFAULT_VEHTYPE" speedFactor="1.12" vaporized=""/>
    <tripinfo id="283" depart="3.00" departLane="-39368999#0_0" departPos="5.10" departSpeed="26.07" departDelay="0.17" arrival="64.00" arrivalLane="39368999#0_1" arrivalPos="259.89" arrivalSpeed="25.56" duration="61.00" routeLength="596.38" waitingTime="27.00" waitingCount="1" stopTime="0.00" timeLoss="36.22" rerouteNo="0" devices="tripinfo_283 fcd_283" vType="DEFAULT_VEHTYPE" speedFactor="0.94" vaporized=""/>
    <tripinfo id="759" depart="64.00" departLane="-695446623#1_0" departPos="5.10" departSpeed="20.87" departDelay="0.68" arrival="78.00" arrivalLane="695446623#1_1" arrivalPos="50.37" arrivalSpeed="15.96" duration="14.00" routeLength="128.50" waitingTime="0.00" waitingCount="0" stopTime="0.00" timeLoss="7.01" rerouteNo="0" devices="tripinfo_759 fcd_759" vType="DEFAULT_VEHTYPE" speedFactor="0.94" vaporized=""/>
    <tripinfo id="9" depart="19.00" departLane="695504114#1_1" departPos="5.10" departSpeed="23.09" departDelay="0.61" arrival="82.00" arrivalLane="695490087#1_2" arrivalPos="110.06" arrivalSpeed="22.28" duration="63.00" routeLength="921.40" waitingTime="0.00" waitingCount="0" stopTime="0.00" timeLoss="19.20" rerouteNo="0" devices="tripinfo_9 fcd_9" vType="DEFAULT_VEHTYPE" speedFactor="0.83" vaporized=""/>
    <tripinfo id="709" depart="77.00" departLane="-695446623#1_0" departPos="5.10" departSpeed="20.87" departDelay="0.95" arrival="88.00" arrivalLane="695504114#4_2" arrivalPos="49.75" arrivalSpeed="18.91" duration="11.00" routeLength="142.02" waitingTime="0.00" waitingCount="0" stopTime="0.00" timeLoss="4.48" rerouteNo="0" devices="tripinfo_709 fcd_709" vType="DEFAULT_VEHTYPE" speedFactor="1.02" vaporized=""/>
    <tripinfo id="111" depart="82.00" departLane="695504114#1_0" departPos="5.10" departSpeed="27.09" departDelay="0.37" arrival="96.00" arrivalLane="695504114#4_1" arrivalPos="49.75" arrivalSpeed="19.10" duration="14.00" routeLength="239.51" waitingTime="0.00" waitingCount="0" stopTime="0.00" timeLoss="5.10" rerouteNo="0" devices="tripinfo_111 fcd_111" vType="DEFAULT_VEHTYPE" speedFactor="0.98" vaporized=""/>
    <tripinfo id="142" depart="40.00" departLane="695504114#1_0" departPos="5.10" departSpeed="28.51" departDelay="0.97" arrival="98.00" arrivalLane="695504114#4_0" arrivalPos="49.75" arrivalSpeed="18.14" duration="58.00" routeLength="239.51" waitingTime="38.00" waitingCount="1" stopTime="0.00" timeLoss="49.30" rerouteNo="0" devices="tripinfo_142 fcd_142" vType="DEFAULT_VEHTYPE" speedFactor="1.03" vaporized=""/>
    <tripinfo id="596" depart="71.00" departLane="695446624#0_0" departPos="5.10" departSpeed="11.23" departDelay="0.28" arrival="102.00" arrivalLane="695446623#1_0" arrivalPos="50.37" arrivalSpeed="17.14" duration="31.00" routeLength="101.36" waitingTime="18.00" waitingCount="1" stopTime="0.00" timeLoss="25.94" rerouteNo="0" devices="tripinfo_596 fcd_596" vType="DEFAULT_VEHTYPE" speedFactor="0.94" vaporized=""/>
    <tripinfo id="586" depart="74.00" departLane="695446624#0_1" departPos="5.10" departSpeed="11.28" departDelay="0.02" arrival="105.00" arrivalLane="695446623#1_0" arrivalPos="50.37" arrivalSpeed="16.91" duration="31.00" routeLength="101.36" waitingTime="17.00" waitingCount="1" stopTime="0.00" timeLoss="26.73" rerouteNo="0" devices="tripinfo_586 fcd_586" vType="DEFAULT_VEHTYPE" speedFactor="1.16" vaporized=""/>
    <tripinfo id="198" depart="37.00" departLane="695504114#1_0" departPos="5.10" departSpeed="23.81" departDelay="0.14" arrival="107.00" arrivalLane="695446623#1_1" arrivalPos="50.37" arrivalSpeed="17.47" duration="70.00" routeLength="248.31" waitingTime="45.00" waitingCount="2" stopTime="0.00" timeLoss="57.48" rerouteNo="0" devices="tripinfo_198 fcd_198" vType="DEFAULT_VEHTYPE" speedFactor="0.86" vaporized=""/>
    <tripinfo id="418" depart="78.00" departLane="695446624#0_2" departPos="5.10" departSpeed="10.95" departDelay="0.11" arrival="110.00" arrivalLane="695490087#1_2" arrivalPos="110.06" arrivalSpeed="24.73" duration="32.00" routeLength="176.33" waitingTime="14.00" waitingCount="2" stopTime="0.00" timeLoss="25.50" rerouteNo="0" devices="tripinfo_418 fcd_418" vType="DEFAULT_VEHTYPE" speedFactor="1.01" vaporized=""/>
    <tripinfo id="450" depart="59.00" departLane="695446624#0_0" departPos="5.10" departSpeed="13.71" departDelay="0.77" arrival="120.00" arrivalLane="39368999#0_0" arrivalPos="259.89" arrivalSpeed="13.17" duration="61.00" routeLength="350.89" waitingTime="33.00" waitingCount="2" stopTime="0.00" timeLoss="44.87" rerouteNo="0" devices="tripinfo_450 fcd_450" vType="DEFAULT_VEHTYPE" speedFactor="0.88" vaporized=""/>
    <tripinfo id="129" depart="117.00" departLane="695504114#1_0" departPos="5.10" departSpeed="25.87" departDelay="0.41" arrival="127.00" arrivalLane="695504114#4_0" arrivalPos="49.75" arrivalSpeed="25.21" duration="10.00" routeLength="239.51" waitingTime="0.00" waitingCount="0" stopTime="0.00" timeLoss="0.25" rerouteNo="0" devices="tripinfo_129 fcd_129" vType="DEFAULT_VEHTYPE" speedFactor="0.93" vaporized=""/>
    <tripinfo id="399" depart="107.00" departLane="-39368999#0_0" departPos="5.10" departSpeed="24.24" departDelay="0.06" arrival="144.00" arrivalLane="695446623#1_0" arrivalPos="50.37" arrivalSpeed="18.85" duration="37.00" routeLength="387.41" waitingTime="10.00" waitingCount="1" stopTime="0.00" timeLoss="20.88" rerouteNo="0" devices="tripinfo_399 fcd_399" vType="DEFAULT_VEHTYPE" speedFactor="0.87" vaporized=""/>
    <tripinfo id="367" depart="108.00" departLane="-39368999#0_0" departPos="5.10" departSpeed="22.74" departDelay="0.07" arrival="146.00" arrivalLane="695446623#1_0" arrivalPos="50.37" arrivalSpeed="19.75" duration="38.00" routeLength="387.41" waitingTime="10.00" waitingCount="1" stopTime="0.00" timeLoss="22.31" rerouteNo="0" devices="tripinfo_367 fcd_367" vType="DEFAULT_VEHTYPE" speedFactor="0.92" vaporized=""/>
    <tripinfo id="526" depart="38.00" departLane="695446624#0_0" departPos="5.10" departSpeed="13.71" departDelay="0.30" arrival="147.00" arrivalLane="695504114#4_0" arrivalPos="49.75" arrivalSpeed="16.35" duration="109.00" routeLength="722.30" waitingTime="47.00" waitingCount="1" stopTime="0.00" timeLoss="81.79" rerouteNo="0" devices="tripinfo_526 fcd_526" vType="DEFAULT_VEHTYPE" speedFactor="1.09" vaporized=""/>
    <tripinfo id="223" depart="102.00" departLane="-39368999#0_0" departPos="5.10" departSpeed="24.71" departDelay="0.57" arrival="149.00" arrivalLane="695490087#1_2" arrivalPos="110.06" arrivalSpeed="23.30" duration="47.00" routeLength="444.49" waitingTime="16.00" waitingCount="1" stopTime="0.00" timeLoss="27.23" rerouteNo="0" devices="tripinfo_223 fcd_223" vType="DEFAULT_VEHTYPE" speedFactor="0.89" vaporized=""/>
    <tripinfo id="543" depart="55.00" departLane="695446624#0_0" departPos="5.10" departSpeed="13.71" departDelay="0.53" arrival="150.00" arrivalLane="695504114#4_0" arrivalPos="49.75" arrivalSpeed="16.40" duration="95.00" routeLength="722.30" waitingTime="32.00" waitingCount="1" stopTime="0.00" timeLoss="66.22" rerouteNo="0" devices="tripinfo_543 fcd_543" vType="DEFAULT_VEHTYPE" speedFactor="0.99" vaporized=""/>
    <tripinfo id="370" depart="119.00" departLane="-39368999#0_0" departPos="5.10" departSpeed="31.44" departDelay="4.11" arrival="150.00" arrivalLane="695446623#1_1" arrivalPos="50.37" arrivalSpeed="19.70" duration="31.00" routeLength="387.41" waitingTime="3.00" waitingCount="1" stopTime="0.00" timeLoss="18.55" rerouteNo="0" devices="tripinfo_370 fcd_370" vType="DEFAULT_VEHTYPE" speedFactor="1.13" vaporized=""/>
    <tripinfo id="5" depart="56.00" departLane="695504114#1_0" departPos="5.10" departSpeed="25.75" departDelay="0.35" arrival="152.00" arrivalLane="695490087#1_2" arrivalPos="110.06" arrivalSpeed="25.03" duration="96.00" routeLength="921.40" waitingTime="25.00" waitingCount="1" stopTime="0.00" timeLoss="55.51" rerouteNo="0" devices="tripinfo_5 fcd_5" vType="DEFAULT_VEHTYPE" speedFactor="0.93" vaporized=""/>
    <tripinfo id="693" depart="109.00" departLane="-695446623#1_0" departPos="5.10" departSpeed="20.87" departDelay="0.75" arrival="153.00" arrivalLane="39368999#0_0" arrivalPos="259.89" arrivalSpeed="25.11" duration="44.00" routeLength="387.69" waitingTime="19.00" waitingCount="1" stopTime="0.00" timeLoss="28.76" rerouteNo="0" devices="tripinfo_693 fcd_693" vType="DEFAULT_VEHTYPE" speedFactor="0.95" vaporized=""/>
    <tripinfo id="508" depart="106.00" departLane="695446624#0_0" departPos="5.10" departSpeed="13.71" departDelay="0.82" arrival="159.00" arrivalLane="695504114#4_0" arrivalPos="49.75" arrivalSpeed="17.14" duration="53.00" routeLength="722.30" waitingTime="0.00" waitingCount="0" stopTime="0.00" timeLoss="16.68" rerouteNo="0" devices="tripinfo_508 fcd_508" vType="DEFAULT_VEHTYPE" speedFactor="0.83" vaporized=""/>
    <tripinfo id="646" depart="146.00" departLane="-695446623#1_0" departPos="5.10" departSpeed="26.09" departDelay="0.14" arrival="160.00" arrivalLane="695490087#1_0" arrivalPos="110.06" arrivalSpeed="24.82" duration="14.00" routeLength="196.03" waitingTime="0.00" waitingCount="0" stopTime="0.00" timeLoss="5.97" rerouteNo="0" devices="tripinfo_646 fcd_646" vType="DEFAULT_VEHTYPE" speedFactor="1.18" vaporized=""/>
    <tripinfo id="318" depart="151.00" departLane="-39368999#0_0" departPos="5.10" departSpeed="27.92" departDelay="0.60" arrival="170.00" arrivalLane="695504114#4_0" arrivalPos="49.75" arrivalSpeed="15.05" duration="19.00" routeLength="361.63" waitingTime="0.00" waitingCount="0" stopTime="0.00" timeLoss="5.24" rerouteNo="0" devices="tripinfo_318 fcd_318" vType="DEFAULT_VEHTYPE" speedFactor="1.01" vaporized=""/>
    <tripinfo id="648" depart="160.00" departLane="-695446623#1_0" departPos="5.10" departSpeed="26.09" departDelay="0.46" arrival="175.00" arrivalLane="695490087#1_0" arrivalPos="110.06" arrivalSpeed="24.50" duration="15.00" routeLength="196.03" waitingTime="0.00" waitingCount="0" stopTime="0.00" timeLoss="6.47" rerouteNo="0" devices="tripinfo_648 fcd_648" vType="DEFAULT_VEHTYPE" speedFactor="1.02" vaporized=""/>
    <tripinfo id="137" depart="180.00" departLane="695504114#1_0" departPos="5.10" departSpeed="28.62" departDelay="0.48" arrival="189.00" arrivalLane="695504114#4_0" arrivalPos="49.75" arrivalSpeed="28.12" duration="9.00" routeLength="239.51" waitingTime="0.00" waitingCount="0" stopTime="0.00" timeLoss="0.46" rerouteNo="0" devices="tripinfo_137 fcd_137" vType="DEFAULT_VEHTYPE" speedFactor="1.03" vaporized=""/>
    <tripinfo id="400" depart="147.00" departLane="695446624#0_0" departPos="5.10" departSpeed="13.71" departDelay="0.06" arrival="191.00" arrivalLane="695490087#1_0" arrivalPos="110.06" arrivalSpeed="22.75" duration="44.00" routeLength="176.33" waitingTime="26.00" waitingCount="1" stopTime="0.00" timeLoss="38.45" rerouteNo="0" devices="tripinfo_400 fcd_400" vType="DEFAULT_VEHTYPE" speedFactor="1.15" vaporized=""/>
    <tripinfo id="564" depart="154.00" departLane="695446624#0_1" departPos="5.10" departSpeed="13.71" departDelay="0.38" arrival="191.00" arrivalLane="695446623#1_0" arrivalPos="50.37" arrivalSpeed="16.82" duration="37.00" routeLength="101.36" waitingTime="24.00" waitingCount="2" stopTime="0.00" timeLoss="32.32" rerouteNo="0" devices="tripinfo_564 fcd_564" vType="DEFAULT_VEHTYPE" speedFactor="0.99" vaporized=""/>
    <tripinfo id="566" depart="168.00" departLane="695446624#0_0" departPos="5.10" departSpeed="10.95" departDelay="0.24" arrival="193.00" arrivalLane="695446623#1_0" arrivalPos="50.37" arrivalSpeed="17.27" duration="25.00" routeLength="101.36" waitingTime="9.00" waitingCount="2" stopTime="0.00" timeLoss="20.50" rerouteNo="0" devices="tripinfo_566 fcd_566" vType="DEFAULT_VEHTYPE" speedFactor="1.18" vaporized=""/>
    <tripinfo id="405" depart="172.00" departLane="695446624#0_1" departPos="5.10" departSpeed="11.28" departDelay="0.56" arrival="194.00" arrivalLane="695490087#1_2" arrivalPos="110.06" arrivalSpeed="24.25" duration="22.00" routeLength="176.33" waitingTime="6.00" waitingCount="1" stopTime="0.00" timeLoss="14.29" rerouteNo="0" devices="tripinfo_405 fcd_405" vType="DEFAULT_VEHTYPE" speedFactor="0.90" vaporized=""/>
    <tripinfo id="92" depart="170.00" departLane="695504114#1_1" departPos="5.10" departSpeed="30.62" departDelay="0.25" arrival="197.00" arrivalLane="39368999#0_0" arrivalPos="259.89" arrivalSpeed="26.01" duration="27.00" routeLength="467.13" waitingTime="0.00" waitingCount="0" stopTime="0.00" timeLoss="10.69" rerouteNo="0" devices="tripinfo_92 fcd_92" vType="DEFAULT_VEHTYPE" speedFactor="1.10" vaporized=""/>
    <tripinfo id="457" depart="183.00" departLane="695446624#0_1" departPos="5.10" departSpeed="13.71" departDelay="0.58" arrival="205.00" arrivalLane="39368999#0_1" arrivalPos="259.89" arrivalSpeed="25.73" duration="22.00" routeLength="350.89" waitingTime="0.00" waitingCount="0" stopTime="0.00" timeLoss="6.03" rerouteNo="0" devices="tripinfo_457 fcd_457" vType="DEFAULT_VEHTYPE" speedFactor="0.96" vaporized=""/>
    <tripinfo id="106" depart="197.00" departLane="695504114#1_0" departPos="5.10" departSpeed="28.99" departDelay="0.59" arrival="206.00" arrivalLane="695504114#4_0" arrivalPos="49.75" arrivalSpeed="28.27" duration="9.00" routeLength="239.51" waitingTime="0.00" waitingCount="0" stopTime="0.00" timeLoss="0.25" rerouteNo="0" devices="tripinfo_106 fcd_106" vType="DEFAULT_VEHTYPE" speedFactor="1.04" vaporized=""/>
    <tripinfo id="73" depart="187.00" departLane="695504114#1_0" departPos="5.10" departSpeed="30.33" departDelay="0.99" arrival="211.00" arrivalLane="39368999#0_0" arrivalPos="259.89" arrivalSpeed="29.76" duration="24.00" routeLength="467.13" waitingTime="0.00" waitingCount="0" stopTime="0.00" timeLoss="7.07" rerouteNo="0" devices="tripinfo_73 fcd_73" vType="DEFAULT_VEHTYPE" speedFactor="1.09" vaporized=""/>
    <tripinfo id="165" depart="212.00" departLane="695504114#1_1" departPos="5.10" departSpeed="24.36" departDelay="0.95" arrival="229.00" arrivalLane="695446623#1_1" arrivalPos="50.37" arrivalSpeed="18.08" duration="17.00" routeLength="248.31" waitingTime="0.00" waitingCount="0" stopTime="0.00" timeLoss="4.50" rerouteNo="0" devices="tripinfo_165 fcd_165" vType="DEFAULT_VEHTYPE" speedFactor="0.88" vaporized=""/>
    <tripinfo id="62" depart="208.00" departLane="695504114#1_0" departPos="5.10" departSpeed="27.71" departDelay="0.28" arrival="233.00" arrivalLane="39368999#0_0" arrivalPos="259.89" arrivalSpeed="27.00" duration="25.00" routeLength="467.13" waitingTime="0.00" waitingCount="0" stopTime="0.00" timeLoss="7.04" rerouteNo="0" devices="tripinfo_62 fcd_62" vType="DEFAULT_VEHTYPE" speedFactor="1.00" vaporized=""/>
    <tripinfo id="378" depart="188.00" departLane="-39368999#0_0" departPos="5.10" departSpeed="28.83" departDelay="0.47" arrival="234.00" arrivalLane="695446623#1_0" arrivalPos="50.37" arrivalSpeed="18.53" duration="46.00" routeLength="387.41" waitingTime="22.00" waitingCount="1" stopTime="0.00" timeLoss="32.51" rerouteNo="0" devices="tripinfo_378 fcd_378" vType="DEFAULT_VEHTYPE" speedFactor="1.04" vaporized=""/>
    <tripinfo id="546" depart="154.00" departLane="695446624#0_0" departPos="5.10" departSpeed="10.95" departDelay="0.72" arrival="235.00" arrivalLane="695504114#4_0" arrivalPos="49.75" arrivalSpeed="18.11" duration="81.00" routeLength="722.30" waitingTime="22.00" waitingCount="3" stopTime="0.00" timeLoss="56.21" rerouteNo="0" devices="tripinfo_546 fcd_546" vType="DEFAULT_VEHTYPE" speedFactor="1.17" vaporized=""/>
    <tripinfo id="19" depart="164.00" departLane="695504114#1_0" departPos="5.10" departSpeed="27.04" departDelay="0.98" arrival="237.00" arrivalLane="695490087#1_2" arrivalPos="110.06" arrivalSpeed="24.80" duration="73.00" routeLength="921.40" waitingTime="9.00" waitingCount="1" stopTime="0.00" timeLoss="33.73" rerouteNo="0" devices="tripinfo_19 fcd_19" vType="DEFAULT_VEHTYPE" speedFactor="0.97" vaporized=""/>
    <tripinfo id="333" depart="209.00" departLane="-39368999#0_0" departPos="5.10" departSpeed="25.02" departDelay="0.96" arrival="238.00" arrivalLane="695504114#4_0" arrivalPos="49.75" arrivalSpeed="14.15" duration="29.00" routeLength="361.63" waitingTime="2.00" waitingCount="1" stopTime="0.00" timeLoss="13.08" rerouteNo="0" devices="tripinfo_333 fcd_333" vType="DEFAULT_VEHTYPE" speedFactor="0.90" vaporized=""/>
    <tripinfo id="362" depart="225.00" departLane="-39368999#0_0" departPos="5.10" departSpeed="28.25" departDelay="0.93" arrival="240.00" arrivalLane="695446623#1_0" arrivalPos="50.37" arrivalSpeed="27.34" duration="15.00" routeLength="387.41" waitingTime="0.00" waitingCount="0" stopTime="0.00" timeLoss="0.42" rerouteNo="0" devices="tripinfo_362 fcd_362" vType="DEFAULT_VEHTYPE" speedFactor="1.02" vaporized=""/>
    <tripinfo id="68" depart="213.00" departLane="695504114#1_1" departPos="5.10" departSpeed="23.62" departDelay="0.43" arrival="244.00" arrivalLane="39368999#0_0" arrivalPos="259.89" arrivalSpeed="23.18" duration="31.00" routeLength="467.13" waitingTime="0.00" waitingCount="0" stopTime="0.00" timeLoss="9.40" rerouteNo="0" devices="tripinfo_68 fcd_68" vType="DEFAULT_VEHTYPE" speedFactor="0.85" vaporized=""/>
    <tripinfo id="503" depart="201.00" departLane="695446624#0_0" departPos="5.10" departSpeed="13.71" departDelay="0.57" arrival="249.00" arrivalLane="695504114#4_0" arrivalPos="49.75" arrivalSpeed="15.69" duration="48.00" routeLength="722.30" waitingTime="0.00" waitingCount="0" stopTime="0.00" timeLoss="20.80" rerouteNo="0" devices="tripinfo_503 fcd_503" vType="DEFAULT_VEHTYPE" speedFactor="1.09" vaporized=""/>
    <tripinfo id="258" depart="236.00" departLane="-39368999#0_1" departPos="5.10" departSpeed="30.44" departDelay="0.32" arrival="271.00" arrivalLane="39368999#0_0" arrivalPos="259.89" arrivalSpeed="9.77" duration="35.00" routeLength="596.38" waitingTime="0.00" waitingCount="0" stopTime="0.00" timeLoss="14.41" rerouteNo="0" devices="tripinfo_258 fcd_258" vType="DEFAULT_VEHTYPE" speedFactor="1.10" vaporized=""/>
    <tripinfo id="274" depart="245.00" departLane="-39368999#0_0" departPos="5.10" departSpeed="31.74" departDelay="0.84" arrival="275.00" arrivalLane="39368999#0_1" arrivalPos="259.89" arrivalSpeed="30.88" duration="30.00" routeLength="596.38" waitingTime="0.00" waitingCount="0" stopTime="0.00" timeLoss="9.94" rerouteNo="0" devices="tripinfo_274 fcd_274" vType="DEFAULT_VEHTYPE" speedFactor="1.14" vaporized=""/>
    <tripinfo id="698" depart="260.00" departLane="-695446623#1_0" departPos="5.10" departSpeed="28.43" departDelay="0.01" arrival="277.00" arrivalLane="39368999#0_0" arrivalPos="259.89" arrivalSpeed="27.68" duration="17.00" routeLength="387.69" waitingTime="0.00" waitingCount="0" stopTime="0.00" timeLoss="2.69" rerouteNo="0" devices="tripinfo_698 fcd_698" vType="DEFAULT_VEHTYPE" speedFactor="1.02" vaporized=""/>
    <tripinfo id="147" depart="215.00" departLane="695504114#1_1" departPos="5.10" departSpeed="23.75" departDelay="0.84" arrival="278.00" arrivalLane="695504114#4_1" arrivalPos="49.75" arrivalSpeed="17.41" duration="63.00" routeLength="239.51" waitingTime="43.00" waitingCount="1" stopTime="0.00" timeLoss="52.76" rerouteNo="0" devices="tripinfo_147 fcd_147" vType="DEFAULT_VEHTYPE" speedFactor="0.85" vaporized=""/>
    <tripinfo id="422" depart="261.00" departLane="695446624#0_0" departPos="5.10" departSpeed="11.28" departDelay="0.03" arrival="285.00" arrivalLane="695490087#1_0" arrivalPos="110.06" arrivalSpeed="26.13" duration="24.00" routeLength="176.33" waitingTime="6.00" waitingCount="1" stopTime="0.00" timeLoss="16.69" rerouteNo="0" devices="tripinfo_422 fcd_422" vType="DEFAULT_VEHTYPE" speedFactor="0.97" vaporized=""/>
    <tripinfo id="452" depart="223.00" departLane="695446624#0_0" departPos="5.10" departSpeed="13.71" departDelay="0.59" arrival="291.00" arrivalLane="39368999#0_1" arrivalPos="259.89" arrivalSpeed="32.29" duration="68.00" routeLength="350.89" waitingTime="41.00" waitingCount="1" stopTime="0.00" timeLoss="55.41" rerouteNo="0" devices="tripinfo_452 fcd_452" vType="DEFAULT_VEHTYPE" speedFactor="1.17" vaporized=""/>
    <tripinfo id="617" depart="279.00" departLane="-695446623#1_0" departPos="5.10" departSpeed="20.87" departDelay="0.55" arrival="293.00" arrivalLane="695490087#1_0" arrivalPos="110.06" arrivalSpeed="24.37" duration="14.00" routeLength="196.03" waitingTime="0.00" waitingCount="0" stopTime="0.00" timeLoss="6.77" rerouteNo="0" devices="tripinfo_617 fcd_617" vType="DEFAULT_VEHTYPE" speedFactor="1.12" vaporized=""/>
    <tripinfo id="608" depart="285.00" departLane="-695446623#1_0" departPos="5.10" departSpeed="20.87" departDelay="0.82" arrival="301.00" arrivalLane="695490087#1_0" arrivalPos="110.06" arrivalSpeed="25.24" duration="16.00" routeLength="196.03" waitingTime="0.00" waitingCount="0" stopTime="0.00" timeLoss="7.23" rerouteNo="0" devices="tripinfo_608 fcd_608" vType="DEFAULT_VEHTYPE" speedFactor="0.94" vaporized=""/>
    <tripinfo id="408" depart="295.00" departLane="695446624#0_0" departPos="5.10" departSpeed="24.42" departDelay="0.99" arrival="303.00" arrivalLane="695490087#1_0" arrivalPos="110.06" arrivalSpeed="25.03" duration="8.00" routeLength="176.33" waitingTime="0.00" waitingCount="0" stopTime="0.00" timeLoss="0.47" rerouteNo="0" devices="tripinfo_408 fcd_408" vType="DEFAULT_VEHTYPE" speedFactor="0.91" vaporized=""/>
    <tripinfo id="197" depart="293.00" departLane="695504114#1_0" departPos="5.10" departSpeed="24.51" departDelay="0.79" arrival="310.00" arrivalLane="695446623#1_1" arrivalPos="50.37" arrivalSpeed="17.14" duration="17.00" routeLength="248.31" waitingTime="0.00" waitingCount="0" stopTime="0.00" timeLoss="4.91" rerouteNo="0" devices="tripinfo_197 fcd_197" vType="DEFAULT_VEHTYPE" speedFactor="0.88" vaporized=""/>
    <tripinfo id="778" depart="279.00" departLane="-695446623#1_1" departPos="5.10" departSpeed="20.87" departDelay="0.27" arrival="323.00" arrivalLane="695446623#1_1" arrivalPos="50.37" arrivalSpeed="16.27" duration="44.00" routeLength="128.50" waitingTime="29.00" waitingCount="1" stopTime="0.00" timeLoss="38.29" rerouteNo="0" devices="tripinfo_778 fcd_778" vType="DEFAULT_VEHTYPE" speedFactor="1.02" vaporized=""/>
    <tripinfo id="356" depart="281.00" departLane="-39368999#0_0" departPos="5.10" departSpeed="27.42" departDelay="0.47" arrival="324.00" arrivalLane="695446623#1_0" arrivalPos="50.37" arrivalSpeed="20.24" duration="43.00" routeLength="387.41" waitingTime="18.00" waitingCount="1" stopTime="0.00" timeLoss="28.25" rerouteNo="0" devices="tripinfo_356 fcd_356" vType="DEFAULT_VEHTYPE" speedFactor="0.99" vaporized=""/>
    <tripinfo id="534" depart="241.00" departLane="695446624#0_0" departPos="5.10" departSpeed="13.71" departDelay="0.20" arrival="325.00" arrivalLane="695504114#4_0" arrivalPos="49.75" arrivalSpeed="15.46" duration="84.00" routeLength="722.30" waitingTime="26.00" waitingCount="1" stopTime="0.00" timeLoss="54.37" rerouteNo="0" devices="tripinfo_534 fcd_534" vType="DEFAULT_VEHTYPE" speedFactor="1.00" vaporized=""/>
    <tripinfo id="511" depart="244.00" departLane="695446624#0_0" departPos="5.10" departSpeed="13.71" departDelay="0.06" arrival="329.00" arrivalLane="695504114#4_0" arrivalPos="49.75" arrivalSpeed="15.51" duration="85.00" routeLength="722.30" waitingTime="29.00" waitingCount="1" stopTime="0.00" timeLoss="51.83" rerouteNo="0" devices="tripinfo_511 fcd_511" vType="DEFAULT_VEHTYPE" speedFactor="0.90" vaporized=""/>
    <tripinfo id="502" depart="273.00" departLane="695446624#0_1" departPos="5.10" departSpeed="11.28" departDelay="0.08" arrival="331.00" arrivalLane="695504114#4_0" arrivalPos="49.75" arrivalSpeed="17.40" duration="58.00" routeLength="722.30" waitingTime="1.00" waitingCount="1" stopTime="0.00" timeLoss="30.80" rerouteNo="0" devices="tripinfo_502 fcd_502" vType="DEFAULT_VEHTYPE" speedFactor="1.08" vaporized=""/>
    <tripinfo id="27" depart="239.00" departLane="695504114#1_0" departPos="5.10" departSpeed="27.87" departDelay="0.62" arrival="333.00" arrivalLane="695490087#1_2" arrivalPos="110.06" arrivalSpeed="23.32" duration="94.00" routeLength="921.40" waitingTime="27.00" waitingCount="2" stopTime="0.00" timeLoss="56.42" rerouteNo="0" devices="tripinfo_27 fcd_27" vType="DEFAULT_VEHTYPE" speedFactor="1.00" vaporized=""/>
    <tripinfo id="653" depart="303.00" departLane="-695446623#1_0" departPos="5.10" departSpeed="20.87" departDelay="0.08" arrival="334.00" arrivalLane="39368999#0_0" arrivalPos="259.89" arrivalSpeed="25.20" duration="31.00" routeLength="387.69" waitingTime="5.00" waitingCount="1" stopTime="0.00" timeLoss="15.02" rerouteNo="0" devices="tripinfo_653 fcd_653" vType="DEFAULT_VEHTYPE" speedFactor="0.91" vaporized=""/>
    <tripinfo id="660" depart="307.00" departLane="-695446623#1_0" departPos="5.10" departSpeed="19.10" departDelay="0.70" arrival="335.00" arrivalLane="39368999#0_0" arrivalPos="259.89" arrivalSpeed="28.05" duration="28.00" routeLength="387.69" waitingTime="2.00" waitingCount="1" stopTime="0.00" timeLoss="14.17" rerouteNo="0" devices="tripinfo_660 fcd_660" vType="DEFAULT_VEHTYPE" speedFactor="1.02" vaporized=""/>