<?xml version="1.0" encoding="UTF-8"?>

<!-- generated on 2021-05-27 16:14:04 by Eclipse SUMO GUI Version 1.9.2
<configuration xmlns:xsi="http://www.w3.org/2001/XMLSchema-instance" xsi:noNamespaceSchemaLocation="http://sumo.dlr.de/xsd/sumoConfiguration.xsd">

    <input>
        <net-file value="data/cross.net.xml"/>
        <route-files value="data/od_route_file.odtrips.rou.xml"/>
        <additional-files value="data/cross.add.xml"/>
    </input>

    <output>
        <fcd-output value="sumoTrace.xml"/>
        <tripinfo-output value="tripinfo.xml"/>
    </output>

    <time>
        <begin value="0"/>
        <end value="3600"/>
    </time>

    <report>
        <verbose value="true"/>
        <no-step-log value="true"/>
    </report>

    <traci_server>
        <remote-port value="46921"/>
    </traci_server>

</configuration>
-->

<detector xmlns:xsi="http://www.w3.org/2001/XMLSchema-instance" xsi:noNamespaceSchemaLocation="http://sumo.dlr.de/xsd/det_e1_file.xsd">
    <interval begin="0.00" end="30.00" id="0" nVehContrib="1" flow="120.00" occupancy="0.98" speed="17.09" harmonicMeanSpeed="17.09" length="5.00" nVehEntered="1"/>
    <interval begin="30.00" end="60.00" id="0" nVehContrib="2" flow="240.00" occupancy="2.01" speed="16.81" harmonicMeanSpeed="16.59" length="5.00" nVehEntered="2"/>
    <interval begin="60.00" end="90.00" id="0" nVehContrib="0" flow="0.00" occupancy="0.00" speed="-1.00" harmonicMeanSpeed="-1.00" length="-1.00" nVehEntered="0"/>
    <interval begin="90.00" end="120.00" id="0" nVehContrib="0" flow="0.00" occupancy="0.00" speed="-1.00" harmonicMeanSpeed="-1.00" length="-1.00" nVehEntered="0"/>
    <interval begin="120.00" end="150.00" id="0" nVehContrib="4" flow="480.00" occupancy="3.70" speed="18.20" harmonicMeanSpeed="18.02" length="5.00" nVehEntered="4"/>
    <interval begin="150.00" end="180.00" id="0" nVehContrib="1" flow="120.00" occupancy="0.99" speed="16.90" harmonicMeanSpeed="16.90" length="5.00" nVehEntered="1"/>
    <interval begin="180.00" end="210.00" id="0" nVehContrib="0" flow="0.00" occupancy="0.00" speed="-1.00" harmonicMeanSpeed="-1.00" length="-1.00" nVehEntered="0"/>
    <interval begin="210.00" end="240.00" id="0" nVehContrib="3" flow="360.00" occupancy="3.03" speed="16.60" harmonicMeanSpeed="16.50" length="5.00" nVehEntered="3"/>
    <interval begin="240.00" end="270.00" id="0" nVehContrib="3" flow="360.00" occupancy="2.64" speed="19.11" harmonicMeanSpeed="18.94" length="5.00" nVehEntered="3"/>
    <interval begin="270.00" end="300.00" id="0" nVehContrib="0" flow="0.00" occupancy="0.00" speed="-1.00" harmonicMeanSpeed="-1.00" length="-1.00" nVehEntered="0"/>
    <interval begin="300.00" end="330.00" id="0" nVehContrib="2" flow="240.00" occupancy="1.89" speed="17.77" harmonicMeanSpeed="17.62" length="5.00" nVehEntered="2"/>
    <interval begin="330.00" end="360.00" id="0" nVehContrib="3" flow="360.00" occupancy="3.41" speed="14.85" harmonicMeanSpeed="14.68" length="5.00" nVehEntered="3"/>
    <interval begin="360.00" end="390.00" id="0" nVehContrib="2" flow="240.00" occupancy="1.70" speed="19.61" harmonicMeanSpeed="19.60" length="5.00" nVehEntered="2"/>
    <interval begin="390.00" end="420.00" id="0" nVehContrib="2" flow="240.00" occupancy="2.05" speed="16.43" harmonicMeanSpeed="16.25" length="5.00" nVehEntered="2"/>
    <interval begin="420.00" end="450.00" id="0" nVehContrib="1" flow="120.00" occupancy="0.82" speed="20.45" harmonicMeanSpeed="20.45" length="5.00" nVehEntered="1"/>
    <interval begin="450.00" end="480.00" id="0" nVehContrib="2" flow="240.00" occupancy="1.79" speed="18.67" harmonicMeanSpeed="18.67" length="5.00" nVehEntered="2"/>
    <interval begin="480.00" end="510.00" id="0" nVehContrib="1" flow="120.00" occupancy="0.94" speed="17.82" harmonicMeanSpeed="17.82" length="5.00" nVehEntered="1"/>
    <interval begin="510.00" end="540.00" id="0" nVehContrib="1" flow="120.00" occupancy="1.12" speed="14.93" harmonicMeanSpeed="14.93" length="5.00" nVehEntered="1"/>
    <interval begin="540.00" end="570.00" id="0" nVehContrib="0" flow="0.00" occupancy="0.00" speed="-1.00" harmonicMeanSpeed="-1.00" length="-1.00" nVehEntered="0"/>
    <interval begin="570.00" end="600.00" id="0" nVehContrib="1" flow="120.00" occupancy="0.93" speed="17.96" harmonicMeanSpeed="17.96" length="5.00" nVehEntered="1"/>
    <interval begin="600.00" end="630.00" id="0" nVehContrib="1" flow="120.00" occupancy="1.00" speed="16.60" harmonicMeanSpeed="16.60" length="5.00" nVehEntered="1"/>
    <interval begin="630.00" end="660.00" id="0" nVehContrib="0" flow="0.00" occupancy="0.00" speed="-1.00" harmonicMeanSpeed="-1.00" length="-1.00" nVehEntered="0"/>
    <interval begin="660.00" end="690.00" id="0" nVehContrib="3" flow="360.00" occupancy="2.97" speed="16.95" harmonicMeanSpeed="16.81" length="5.00" nVehEntered="3"/>
    <interval begin="690.00" end="720.00" id="0" nVehContrib="3" flow="360.00" occupancy="6.82" speed="8.01" harmonicMeanSpeed="7.33" length="5.00" nVehEntered="3"/>
    <interval begin="720.00" end="750.00" id="0" nVehContrib="2" flow="240.00" occupancy="9.29" speed="4.17" harmonicMeanSpeed="3.59" length="5.00" nVehEntered="2"/>
    <interval begin="750.00" end="780.00" id="0" nVehContrib="2" flow="240.00" occupancy="1.63" speed="20.60" harmonicMeanSpeed="20.50" length="5.00" nVehEntered="2"/>
    <interval begin="780.00" end="810.00" id="0" nVehContrib="1" flow="120.00" occupancy="1.04" speed="16.06" harmonicMeanSpeed="16.06" length="5.00" nVehEntered="1"/>
    <interval begin="810.00" end="840.00" id="0" nVehContrib="0" flow="0.00" occupancy="0.00" speed="-1.00" harmonicMeanSpeed="-1.00" length="-1.00" nVehEntered="0"/>
    <interval begin="840.00" end="870.00" id="0" nVehContrib="3" flow="360.00" occupancy="2.93" speed="17.25" harmonicMeanSpeed="17.04" length="5.00" nVehEntered="3"/>
    <interval begin="870.00" end="900.00" id="0" nVehContrib="3" flow="360.00" occupancy="7.47" speed="8.08" harmonicMeanSpeed="6.70" length="5.00" nVehEntered="3"/>
    <interval begin="900.00" end="930.00" id="0" nVehContrib="4" flow="480.00" occupancy="10.12" speed="11.15" harmonicMeanSpeed="6.59" length="5.00" nVehEntered="4"/>
    <interval begin="930.00" end="960.00" id="0" nVehContrib="0" flow="0.00" occupancy="0.00" speed="-1.00" harmonicMeanSpeed="-1.00" length="-1.00" nVehEntered="0"/>
    <interval begin="960.00" end="990.00" id="0" nVehContrib="4" flow="480.00" occupancy="4.04" speed="16.73" harmonicMeanSpeed="16.50" length="5.00" nVehEntered="4"/>
    <interval begin="990.00" end="1020.00" id="0" nVehContrib="0" flow="0.00" occupancy="0.00" speed="-1.00" harmonicMeanSpeed="-1.00" length="-1.00" nVehEntered="0"/>
    <interval begin="1020.00" end="1050.00" id="0" nVehContrib="2" flow="240.00" occupancy="1.92" speed="17.40" harmonicMeanSpeed="17.39" length="5.00" nVehEntered="2"/>
    <interval begin="1050.00" end="1080.00" id="0" nVehContrib="1" flow="120.00" occupancy="1.11" speed="15.06" harmonicMeanSpeed="15.06" length="5.00" nVehEntered="1"/>
    <interval begin="1080.00" end="1110.00" id="0" nVehContrib="2" flow="240.00" occupancy="1.96" speed="17.25" harmonicMeanSpeed="16.97" length="5.00" nVehEntered="2"/>
    <interval begin="1110.00" end="1140.00" id="0" nVehContrib="2" flow="240.00" occupancy="2.03" speed="16.44" harmonicMeanSpeed="16.44" length="5.00" nVehEntered="2"/>
    <interval begin="1140.00" end="1170.00" id="0" nVehContrib="2" flow="240.00" occupancy="1.79" speed="18.73" harmonicMeanSpeed="18.66" length="5.00" nVehEntered="2"/>
    <interval begin="1170.00" end="1200.00" id="0" nVehContrib="1" flow="120.00" occupancy="1.04" speed="15.98" harmonicMeanSpeed="15.98" length="5.00" nVehEntered="1"/>
    <interval begin="1200.00" end="1230.00" id="0" nVehContrib="1" flow="120.00" occupancy="1.14" speed="14.60" harmonicMeanSpeed="14.60" length="5.00" nVehEntered="1"/>
    <interval begin="1230.00" end="1260.00" id="0" nVehContrib="2" flow="240.00" occupancy="1.86" speed="17.95" harmonicMeanSpeed="17.94" length="5.00" nVehEntered="2"/>
    <interval begin="1260.00" end="1268.00" id="0" nVehContrib="0" flow="0.00" occupancy="0.00" speed="-1.00" harmonicMeanSpeed="-1.00" length="-1.00" nVehEntered="0"/>
</detector>
